 LAMMPS data file for graphene
    3264      atoms
       0      bonds
       0     angles
       0  dihedrals
       0  impropers

       1 atom types
       0 bond types

    0.000000   84.684061 xlo xhi
    0.000000  103.536720 ylo yhi
    0.000000   10.000000 zlo zhi

Masses

       1  12.01105

Atoms

       1       1      1.24535391      0.00000000      5.00000000
       2       1      1.24535300      1.43801072      5.00000000
       3       1      3.73606091      0.00000000      5.00000000
       4       1      3.73606000      1.43801072      5.00000000
       5       1      6.22676791      0.00000000      5.00000000
       6       1      6.22676700      1.43801072      5.00000000
       7       1      8.71747491      0.00000000      5.00000000
       8       1      8.71747400      1.43801072      5.00000000
       9       1     11.20818191      0.00000000      5.00000000
      10       1     11.20818100      1.43801072      5.00000000
      11       1     13.69888891      0.00000000      5.00000000
      12       1     13.69888800      1.43801072      5.00000000
      13       1     16.18959591      0.00000000      5.00000000
      14       1     16.18959500      1.43801072      5.00000000
      15       1     18.68030291      0.00000000      5.00000000
      16       1     18.68030200      1.43801072      5.00000000
      17       1     21.17100991      0.00000000      5.00000000
      18       1     21.17100900      1.43801072      5.00000000
      19       1     23.66171691      0.00000000      5.00000000
      20       1     23.66171600      1.43801072      5.00000000
      21       1     26.15242391      0.00000000      5.00000000
      22       1     26.15242300      1.43801072      5.00000000
      23       1     28.64313091      0.00000000      5.00000000
      24       1     28.64313000      1.43801072      5.00000000
      25       1     31.13383791      0.00000000      5.00000000
      26       1     31.13383700      1.43801072      5.00000000
      27       1     33.62454491      0.00000000      5.00000000
      28       1     33.62454400      1.43801072      5.00000000
      29       1     36.11525191      0.00000000      5.00000000
      30       1     36.11525100      1.43801072      5.00000000
      31       1     38.60595891      0.00000000      5.00000000
      32       1     38.60595800      1.43801072      5.00000000
      33       1     41.09666591      0.00000000      5.00000000
      34       1     41.09666500      1.43801072      5.00000000
      35       1     43.58737291      0.00000000      5.00000000
      36       1     43.58737200      1.43801072      5.00000000
      37       1     46.07807991      0.00000000      5.00000000
      38       1     46.07807900      1.43801072      5.00000000
      39       1     48.56878691      0.00000000      5.00000000
      40       1     48.56878600      1.43801072      5.00000000
      41       1     51.05949391      0.00000000      5.00000000
      42       1     51.05949300      1.43801072      5.00000000
      43       1     53.55020091      0.00000000      5.00000000
      44       1     53.55020000      1.43801072      5.00000000
      45       1     56.04090791      0.00000000      5.00000000
      46       1     56.04090700      1.43801072      5.00000000
      47       1     58.53161491      0.00000000      5.00000000
      48       1     58.53161400      1.43801072      5.00000000
      49       1     61.02232191      0.00000000      5.00000000
      50       1     61.02232100      1.43801072      5.00000000
      51       1     63.51302891      0.00000000      5.00000000
      52       1     63.51302800      1.43801072      5.00000000
      53       1     66.00373591      0.00000000      5.00000000
      54       1     66.00373500      1.43801072      5.00000000
      55       1     68.49444291      0.00000000      5.00000000
      56       1     68.49444200      1.43801072      5.00000000
      57       1     70.98514991      0.00000000      5.00000000
      58       1     70.98514900      1.43801072      5.00000000
      59       1     73.47585691      0.00000000      5.00000000
      60       1     73.47585600      1.43801072      5.00000000
      61       1     75.96656391      0.00000000      5.00000000
      62       1     75.96656300      1.43801072      5.00000000
      63       1     78.45727091      0.00000000      5.00000000
      64       1     78.45727000      1.43801072      5.00000000
      65       1     80.94797791      0.00000000      5.00000000
      66       1     80.94797700      1.43801072      5.00000000
      67       1     83.43868491      0.00000000      5.00000000
      68       1     83.43868400      1.43801072      5.00000000
      69       1      0.00000091      2.15701500      5.00000000
      70       1      0.00000000      3.59502572      5.00000000
      71       1      2.49070791      2.15701500      5.00000000
      72       1      2.49070700      3.59502572      5.00000000
      73       1      4.98141491      2.15701500      5.00000000
      74       1      4.98141400      3.59502572      5.00000000
      75       1      7.47212191      2.15701500      5.00000000
      76       1      7.47212100      3.59502572      5.00000000
      77       1      9.96282891      2.15701500      5.00000000
      78       1      9.96282800      3.59502572      5.00000000
      79       1     12.45353591      2.15701500      5.00000000
      80       1     12.45353500      3.59502572      5.00000000
      81       1     14.94424291      2.15701500      5.00000000
      82       1     14.94424200      3.59502572      5.00000000
      83       1     17.43494991      2.15701500      5.00000000
      84       1     17.43494900      3.59502572      5.00000000
      85       1     19.92565691      2.15701500      5.00000000
      86       1     19.92565600      3.59502572      5.00000000
      87       1     22.41636391      2.15701500      5.00000000
      88       1     22.41636300      3.59502572      5.00000000
      89       1     24.90707091      2.15701500      5.00000000
      90       1     24.90707000      3.59502572      5.00000000
      91       1     27.39777791      2.15701500      5.00000000
      92       1     27.39777700      3.59502572      5.00000000
      93       1     29.88848491      2.15701500      5.00000000
      94       1     29.88848400      3.59502572      5.00000000
      95       1     32.37919191      2.15701500      5.00000000
      96       1     32.37919100      3.59502572      5.00000000
      97       1     34.86989891      2.15701500      5.00000000
      98       1     34.86989800      3.59502572      5.00000000
      99       1     37.36060591      2.15701500      5.00000000
     100       1     37.36060500      3.59502572      5.00000000
     101       1     39.85131291      2.15701500      5.00000000
     102       1     39.85131200      3.59502572      5.00000000
     103       1     42.34201991      2.15701500      5.00000000
     104       1     42.34201900      3.59502572      5.00000000
     105       1     44.83272691      2.15701500      5.00000000
     106       1     44.83272600      3.59502572      5.00000000
     107       1     47.32343391      2.15701500      5.00000000
     108       1     47.32343300      3.59502572      5.00000000
     109       1     49.81414091      2.15701500      5.00000000
     110       1     49.81414000      3.59502572      5.00000000
     111       1     52.30484791      2.15701500      5.00000000
     112       1     52.30484700      3.59502572      5.00000000
     113       1     54.79555491      2.15701500      5.00000000
     114       1     54.79555400      3.59502572      5.00000000
     115       1     57.28626191      2.15701500      5.00000000
     116       1     57.28626100      3.59502572      5.00000000
     117       1     59.77696891      2.15701500      5.00000000
     118       1     59.77696800      3.59502572      5.00000000
     119       1     62.26767591      2.15701500      5.00000000
     120       1     62.26767500      3.59502572      5.00000000
     121       1     64.75838291      2.15701500      5.00000000
     122       1     64.75838200      3.59502572      5.00000000
     123       1     67.24908991      2.15701500      5.00000000
     124       1     67.24908900      3.59502572      5.00000000
     125       1     69.73979691      2.15701500      5.00000000
     126       1     69.73979600      3.59502572      5.00000000
     127       1     72.23050391      2.15701500      5.00000000
     128       1     72.23050300      3.59502572      5.00000000
     129       1     74.72121091      2.15701500      5.00000000
     130       1     74.72121000      3.59502572      5.00000000
     131       1     77.21191791      2.15701500      5.00000000
     132       1     77.21191700      3.59502572      5.00000000
     133       1     79.70262491      2.15701500      5.00000000
     134       1     79.70262400      3.59502572      5.00000000
     135       1     82.19333191      2.15701500      5.00000000
     136       1     82.19333100      3.59502572      5.00000000
     137       1      1.24535491      4.31403000      5.00000000
     138       1      1.24535400      5.75204072      5.00000000
     139       1      3.73606191      4.31403000      5.00000000
     140       1      3.73606100      5.75204072      5.00000000
     141       1      6.22676891      4.31403000      5.00000000
     142       1      6.22676800      5.75204072      5.00000000
     143       1      8.71747591      4.31403000      5.00000000
     144       1      8.71747500      5.75204072      5.00000000
     145       1     11.20818291      4.31403000      5.00000000
     146       1     11.20818200      5.75204072      5.00000000
     147       1     13.69888991      4.31403000      5.00000000
     148       1     13.69888900      5.75204072      5.00000000
     149       1     16.18959691      4.31403000      5.00000000
     150       1     16.18959600      5.75204072      5.00000000
     151       1     18.68030391      4.31403000      5.00000000
     152       1     18.68030300      5.75204072      5.00000000
     153       1     21.17101091      4.31403000      5.00000000
     154       1     21.17101000      5.75204072      5.00000000
     155       1     23.66171791      4.31403000      5.00000000
     156       1     23.66171700      5.75204072      5.00000000
     157       1     26.15242491      4.31403000      5.00000000
     158       1     26.15242400      5.75204072      5.00000000
     159       1     28.64313191      4.31403000      5.00000000
     160       1     28.64313100      5.75204072      5.00000000
     161       1     31.13383891      4.31403000      5.00000000
     162       1     31.13383800      5.75204072      5.00000000
     163       1     33.62454591      4.31403000      5.00000000
     164       1     33.62454500      5.75204072      5.00000000
     165       1     36.11525291      4.31403000      5.00000000
     166       1     36.11525200      5.75204072      5.00000000
     167       1     38.60595991      4.31403000      5.00000000
     168       1     38.60595900      5.75204072      5.00000000
     169       1     41.09666691      4.31403000      5.00000000
     170       1     41.09666600      5.75204072      5.00000000
     171       1     43.58737391      4.31403000      5.00000000
     172       1     43.58737300      5.75204072      5.00000000
     173       1     46.07808091      4.31403000      5.00000000
     174       1     46.07808000      5.75204072      5.00000000
     175       1     48.56878791      4.31403000      5.00000000
     176       1     48.56878700      5.75204072      5.00000000
     177       1     51.05949491      4.31403000      5.00000000
     178       1     51.05949400      5.75204072      5.00000000
     179       1     53.55020191      4.31403000      5.00000000
     180       1     53.55020100      5.75204072      5.00000000
     181       1     56.04090891      4.31403000      5.00000000
     182       1     56.04090800      5.75204072      5.00000000
     183       1     58.53161591      4.31403000      5.00000000
     184       1     58.53161500      5.75204072      5.00000000
     185       1     61.02232291      4.31403000      5.00000000
     186       1     61.02232200      5.75204072      5.00000000
     187       1     63.51302991      4.31403000      5.00000000
     188       1     63.51302900      5.75204072      5.00000000
     189       1     66.00373691      4.31403000      5.00000000
     190       1     66.00373600      5.75204072      5.00000000
     191       1     68.49444391      4.31403000      5.00000000
     192       1     68.49444300      5.75204072      5.00000000
     193       1     70.98515091      4.31403000      5.00000000
     194       1     70.98515000      5.75204072      5.00000000
     195       1     73.47585791      4.31403000      5.00000000
     196       1     73.47585700      5.75204072      5.00000000
     197       1     75.96656491      4.31403000      5.00000000
     198       1     75.96656400      5.75204072      5.00000000
     199       1     78.45727191      4.31403000      5.00000000
     200       1     78.45727100      5.75204072      5.00000000
     201       1     80.94797891      4.31403000      5.00000000
     202       1     80.94797800      5.75204072      5.00000000
     203       1     83.43868591      4.31403000      5.00000000
     204       1     83.43868500      5.75204072      5.00000000
     205       1      0.00000191      6.47104500      5.00000000
     206       1      0.00000100      7.90905572      5.00000000
     207       1      2.49070891      6.47104500      5.00000000
     208       1      2.49070800      7.90905572      5.00000000
     209       1      4.98141591      6.47104500      5.00000000
     210       1      4.98141500      7.90905572      5.00000000
     211       1      7.47212291      6.47104500      5.00000000
     212       1      7.47212200      7.90905572      5.00000000
     213       1      9.96282991      6.47104500      5.00000000
     214       1      9.96282900      7.90905572      5.00000000
     215       1     12.45353691      6.47104500      5.00000000
     216       1     12.45353600      7.90905572      5.00000000
     217       1     14.94424391      6.47104500      5.00000000
     218       1     14.94424300      7.90905572      5.00000000
     219       1     17.43495091      6.47104500      5.00000000
     220       1     17.43495000      7.90905572      5.00000000
     221       1     19.92565791      6.47104500      5.00000000
     222       1     19.92565700      7.90905572      5.00000000
     223       1     22.41636491      6.47104500      5.00000000
     224       1     22.41636400      7.90905572      5.00000000
     225       1     24.90707191      6.47104500      5.00000000
     226       1     24.90707100      7.90905572      5.00000000
     227       1     27.39777891      6.47104500      5.00000000
     228       1     27.39777800      7.90905572      5.00000000
     229       1     29.88848591      6.47104500      5.00000000
     230       1     29.88848500      7.90905572      5.00000000
     231       1     32.37919291      6.47104500      5.00000000
     232       1     32.37919200      7.90905572      5.00000000
     233       1     34.86989991      6.47104500      5.00000000
     234       1     34.86989900      7.90905572      5.00000000
     235       1     37.36060691      6.47104500      5.00000000
     236       1     37.36060600      7.90905572      5.00000000
     237       1     39.85131391      6.47104500      5.00000000
     238       1     39.85131300      7.90905572      5.00000000
     239       1     42.34202091      6.47104500      5.00000000
     240       1     42.34202000      7.90905572      5.00000000
     241       1     44.83272791      6.47104500      5.00000000
     242       1     44.83272700      7.90905572      5.00000000
     243       1     47.32343491      6.47104500      5.00000000
     244       1     47.32343400      7.90905572      5.00000000
     245       1     49.81414191      6.47104500      5.00000000
     246       1     49.81414100      7.90905572      5.00000000
     247       1     52.30484891      6.47104500      5.00000000
     248       1     52.30484800      7.90905572      5.00000000
     249       1     54.79555591      6.47104500      5.00000000
     250       1     54.79555500      7.90905572      5.00000000
     251       1     57.28626291      6.47104500      5.00000000
     252       1     57.28626200      7.90905572      5.00000000
     253       1     59.77696991      6.47104500      5.00000000
     254       1     59.77696900      7.90905572      5.00000000
     255       1     62.26767691      6.47104500      5.00000000
     256       1     62.26767600      7.90905572      5.00000000
     257       1     64.75838391      6.47104500      5.00000000
     258       1     64.75838300      7.90905572      5.00000000
     259       1     67.24909091      6.47104500      5.00000000
     260       1     67.24909000      7.90905572      5.00000000
     261       1     69.73979791      6.47104500      5.00000000
     262       1     69.73979700      7.90905572      5.00000000
     263       1     72.23050491      6.47104500      5.00000000
     264       1     72.23050400      7.90905572      5.00000000
     265       1     74.72121191      6.47104500      5.00000000
     266       1     74.72121100      7.90905572      5.00000000
     267       1     77.21191891      6.47104500      5.00000000
     268       1     77.21191800      7.90905572      5.00000000
     269       1     79.70262591      6.47104500      5.00000000
     270       1     79.70262500      7.90905572      5.00000000
     271       1     82.19333291      6.47104500      5.00000000
     272       1     82.19333200      7.90905572      5.00000000
     273       1      1.24535591      8.62806000      5.00000000
     274       1      1.24535500     10.06607072      5.00000000
     275       1      3.73606291      8.62806000      5.00000000
     276       1      3.73606200     10.06607072      5.00000000
     277       1      6.22676991      8.62806000      5.00000000
     278       1      6.22676900     10.06607072      5.00000000
     279       1      8.71747691      8.62806000      5.00000000
     280       1      8.71747600     10.06607072      5.00000000
     281       1     11.20818391      8.62806000      5.00000000
     282       1     11.20818300     10.06607072      5.00000000
     283       1     13.69889091      8.62806000      5.00000000
     284       1     13.69889000     10.06607072      5.00000000
     285       1     16.18959791      8.62806000      5.00000000
     286       1     16.18959700     10.06607072      5.00000000
     287       1     18.68030491      8.62806000      5.00000000
     288       1     18.68030400     10.06607072      5.00000000
     289       1     21.17101191      8.62806000      5.00000000
     290       1     21.17101100     10.06607072      5.00000000
     291       1     23.66171891      8.62806000      5.00000000
     292       1     23.66171800     10.06607072      5.00000000
     293       1     26.15242591      8.62806000      5.00000000
     294       1     26.15242500     10.06607072      5.00000000
     295       1     28.64313291      8.62806000      5.00000000
     296       1     28.64313200     10.06607072      5.00000000
     297       1     31.13383991      8.62806000      5.00000000
     298       1     31.13383900     10.06607072      5.00000000
     299       1     33.62454691      8.62806000      5.00000000
     300       1     33.62454600     10.06607072      5.00000000
     301       1     36.11525391      8.62806000      5.00000000
     302       1     36.11525300     10.06607072      5.00000000
     303       1     38.60596091      8.62806000      5.00000000
     304       1     38.60596000     10.06607072      5.00000000
     305       1     41.09666791      8.62806000      5.00000000
     306       1     41.09666700     10.06607072      5.00000000
     307       1     43.58737491      8.62806000      5.00000000
     308       1     43.58737400     10.06607072      5.00000000
     309       1     46.07808191      8.62806000      5.00000000
     310       1     46.07808100     10.06607072      5.00000000
     311       1     48.56878891      8.62806000      5.00000000
     312       1     48.56878800     10.06607072      5.00000000
     313       1     51.05949591      8.62806000      5.00000000
     314       1     51.05949500     10.06607072      5.00000000
     315       1     53.55020291      8.62806000      5.00000000
     316       1     53.55020200     10.06607072      5.00000000
     317       1     56.04090991      8.62806000      5.00000000
     318       1     56.04090900     10.06607072      5.00000000
     319       1     58.53161691      8.62806000      5.00000000
     320       1     58.53161600     10.06607072      5.00000000
     321       1     61.02232391      8.62806000      5.00000000
     322       1     61.02232300     10.06607072      5.00000000
     323       1     63.51303091      8.62806000      5.00000000
     324       1     63.51303000     10.06607072      5.00000000
     325       1     66.00373791      8.62806000      5.00000000
     326       1     66.00373700     10.06607072      5.00000000
     327       1     68.49444491      8.62806000      5.00000000
     328       1     68.49444400     10.06607072      5.00000000
     329       1     70.98515191      8.62806000      5.00000000
     330       1     70.98515100     10.06607072      5.00000000
     331       1     73.47585891      8.62806000      5.00000000
     332       1     73.47585800     10.06607072      5.00000000
     333       1     75.96656591      8.62806000      5.00000000
     334       1     75.96656500     10.06607072      5.00000000
     335       1     78.45727291      8.62806000      5.00000000
     336       1     78.45727200     10.06607072      5.00000000
     337       1     80.94797991      8.62806000      5.00000000
     338       1     80.94797900     10.06607072      5.00000000
     339       1     83.43868691      8.62806000      5.00000000
     340       1     83.43868600     10.06607072      5.00000000
     341       1      0.00000291     10.78507500      5.00000000
     342       1      0.00000200     12.22308572      5.00000000
     343       1      2.49070991     10.78507500      5.00000000
     344       1      2.49070900     12.22308572      5.00000000
     345       1      4.98141691     10.78507500      5.00000000
     346       1      4.98141600     12.22308572      5.00000000
     347       1      7.47212391     10.78507500      5.00000000
     348       1      7.47212300     12.22308572      5.00000000
     349       1      9.96283091     10.78507500      5.00000000
     350       1      9.96283000     12.22308572      5.00000000
     351       1     12.45353791     10.78507500      5.00000000
     352       1     12.45353700     12.22308572      5.00000000
     353       1     14.94424491     10.78507500      5.00000000
     354       1     14.94424400     12.22308572      5.00000000
     355       1     17.43495191     10.78507500      5.00000000
     356       1     17.43495100     12.22308572      5.00000000
     357       1     19.92565891     10.78507500      5.00000000
     358       1     19.92565800     12.22308572      5.00000000
     359       1     22.41636591     10.78507500      5.00000000
     360       1     22.41636500     12.22308572      5.00000000
     361       1     24.90707291     10.78507500      5.00000000
     362       1     24.90707200     12.22308572      5.00000000
     363       1     27.39777991     10.78507500      5.00000000
     364       1     27.39777900     12.22308572      5.00000000
     365       1     29.88848691     10.78507500      5.00000000
     366       1     29.88848600     12.22308572      5.00000000
     367       1     32.37919391     10.78507500      5.00000000
     368       1     32.37919300     12.22308572      5.00000000
     369       1     34.86990091     10.78507500      5.00000000
     370       1     34.86990000     12.22308572      5.00000000
     371       1     37.36060791     10.78507500      5.00000000
     372       1     37.36060700     12.22308572      5.00000000
     373       1     39.85131491     10.78507500      5.00000000
     374       1     39.85131400     12.22308572      5.00000000
     375       1     42.34202191     10.78507500      5.00000000
     376       1     42.34202100     12.22308572      5.00000000
     377       1     44.83272891     10.78507500      5.00000000
     378       1     44.83272800     12.22308572      5.00000000
     379       1     47.32343591     10.78507500      5.00000000
     380       1     47.32343500     12.22308572      5.00000000
     381       1     49.81414291     10.78507500      5.00000000
     382       1     49.81414200     12.22308572      5.00000000
     383       1     52.30484991     10.78507500      5.00000000
     384       1     52.30484900     12.22308572      5.00000000
     385       1     54.79555691     10.78507500      5.00000000
     386       1     54.79555600     12.22308572      5.00000000
     387       1     57.28626391     10.78507500      5.00000000
     388       1     57.28626300     12.22308572      5.00000000
     389       1     59.77697091     10.78507500      5.00000000
     390       1     59.77697000     12.22308572      5.00000000
     391       1     62.26767791     10.78507500      5.00000000
     392       1     62.26767700     12.22308572      5.00000000
     393       1     64.75838491     10.78507500      5.00000000
     394       1     64.75838400     12.22308572      5.00000000
     395       1     67.24909191     10.78507500      5.00000000
     396       1     67.24909100     12.22308572      5.00000000
     397       1     69.73979891     10.78507500      5.00000000
     398       1     69.73979800     12.22308572      5.00000000
     399       1     72.23050591     10.78507500      5.00000000
     400       1     72.23050500     12.22308572      5.00000000
     401       1     74.72121291     10.78507500      5.00000000
     402       1     74.72121200     12.22308572      5.00000000
     403       1     77.21191991     10.78507500      5.00000000
     404       1     77.21191900     12.22308572      5.00000000
     405       1     79.70262691     10.78507500      5.00000000
     406       1     79.70262600     12.22308572      5.00000000
     407       1     82.19333391     10.78507500      5.00000000
     408       1     82.19333300     12.22308572      5.00000000
     409       1      1.24535691     12.94209000      5.00000000
     410       1      1.24535600     14.38010072      5.00000000
     411       1      3.73606391     12.94209000      5.00000000
     412       1      3.73606300     14.38010072      5.00000000
     413       1      6.22677091     12.94209000      5.00000000
     414       1      6.22677000     14.38010072      5.00000000
     415       1      8.71747791     12.94209000      5.00000000
     416       1      8.71747700     14.38010072      5.00000000
     417       1     11.20818491     12.94209000      5.00000000
     418       1     11.20818400     14.38010072      5.00000000
     419       1     13.69889191     12.94209000      5.00000000
     420       1     13.69889100     14.38010072      5.00000000
     421       1     16.18959891     12.94209000      5.00000000
     422       1     16.18959800     14.38010072      5.00000000
     423       1     18.68030591     12.94209000      5.00000000
     424       1     18.68030500     14.38010072      5.00000000
     425       1     21.17101291     12.94209000      5.00000000
     426       1     21.17101200     14.38010072      5.00000000
     427       1     23.66171991     12.94209000      5.00000000
     428       1     23.66171900     14.38010072      5.00000000
     429       1     26.15242691     12.94209000      5.00000000
     430       1     26.15242600     14.38010072      5.00000000
     431       1     28.64313391     12.94209000      5.00000000
     432       1     28.64313300     14.38010072      5.00000000
     433       1     31.13384091     12.94209000      5.00000000
     434       1     31.13384000     14.38010072      5.00000000
     435       1     33.62454791     12.94209000      5.00000000
     436       1     33.62454700     14.38010072      5.00000000
     437       1     36.11525491     12.94209000      5.00000000
     438       1     36.11525400     14.38010072      5.00000000
     439       1     38.60596191     12.94209000      5.00000000
     440       1     38.60596100     14.38010072      5.00000000
     441       1     41.09666891     12.94209000      5.00000000
     442       1     41.09666800     14.38010072      5.00000000
     443       1     43.58737591     12.94209000      5.00000000
     444       1     43.58737500     14.38010072      5.00000000
     445       1     46.07808291     12.94209000      5.00000000
     446       1     46.07808200     14.38010072      5.00000000
     447       1     48.56878991     12.94209000      5.00000000
     448       1     48.56878900     14.38010072      5.00000000
     449       1     51.05949691     12.94209000      5.00000000
     450       1     51.05949600     14.38010072      5.00000000
     451       1     53.55020391     12.94209000      5.00000000
     452       1     53.55020300     14.38010072      5.00000000
     453       1     56.04091091     12.94209000      5.00000000
     454       1     56.04091000     14.38010072      5.00000000
     455       1     58.53161791     12.94209000      5.00000000
     456       1     58.53161700     14.38010072      5.00000000